<?xml version="1.0" encoding="UTF-8"?>

<!-- generated on 01/04/21 11:17:17 by Eclipse SUMO GUI Version 1.6.0
<configuration xmlns:xsi="http://www.w3.org/2001/XMLSchema-instance" xsi:noNamespaceSchemaLocation="http://sumo.dlr.de/xsd/sumoConfiguration.xsd">

    <input>
        <net-file value="C:\Users\John\src\Sumo\bin\scenario\lust.net.xml"/>
        <route-files value="C:\Users\John\src\Sumo\bin\scenario\buslines.rou.xml,C:\Users\John\src\Sumo\bin\scenario\ccustore/lust.rou.xml"/>
        <additional-files value="C:\Users\John\src\Sumo\bin\scenario\vtypes.add.xml,C:\Users\John\src\Sumo\bin\scenario\busstops.add.xml,C:\Users\John\src\Sumo\bin\scenario\e1detectors.add.xml,C:\Users\John\src\Sumo\bin\scenario\lust.poly.xml"/>
    </input>

    <output>
        <summary-output value="C:\Users\John\src\Sumo\bin\scenario\ccustore/ccuits_full.summary.xml"/>
        <tripinfo-output value="C:\Users\John\src\Sumo\bin\scenario\ccustore/ccuits_full.tripinfo.xml"/>
        <statistic-output value="C:\Users\John\src\Sumo\bin\scenario\ccustore/ccuits_statistic.xml"/>
    </output>

    <time>
        <begin value="27600"/>
        <end value="29000"/>
        <step-length value="1"/>
    </time>

    <processing>
        <lateral-resolution value="25"/>
        <ignore-junction-blocker value="20"/>
        <time-to-teleport value="600"/>
        <max-depart-delay value="600"/>
    </processing>

    <routing>
        <routing-algorithm value="dijkstra"/>
        <weights.priority-factor value="1.5"/>
        <device.rerouting.probability value="0.7"/>
        <device.rerouting.period value="300"/>
        <device.rerouting.pre-period value="300"/>
    </routing>

    <report>
        <verbose value="true"/>
        <log value="C:\Users\John\src\Sumo\bin\scenario\dua.actuated.log"/>
    </report>

    <gui_only>
        <tracker-interval value="1"/>
    </gui_only>

</configuration>
-->

<tripinfos xmlns:xsi="http://www.w3.org/2001/XMLSchema-instance" xsi:noNamespaceSchemaLocation="http://sumo.dlr.de/xsd/tripinfo_file.xsd">
    <tripinfo id="h23263c1:1" depart="27630.00" departLane="--31974_0" departPos="22.39" departPosLat="0.00" departSpeed="0.00" departDelay="0.00" arrival="27635.00" arrivalLane="--31974_0" arrivalPos="36.51" arrivalPosLat="0.00" arrivalSpeed="0.49" duration="5.00" routeLength="14.12" waitingTime="0.00" waitingCount="0" stopTime="0.00" timeLoss="4.05" rerouteNo="0" devices="tripinfo_h23263c1:1 routing_h23263c1:1" vType="passenger1" speedFactor="1.07" vaporized=""/>
    <tripinfo id="h11157c1:1" depart="27643.00" departLane="--31072#1_0" departPos="7.50" departPosLat="0.00" departSpeed="0.00" departDelay="0.00" arrival="27649.00" arrivalLane="--31072#1_0" arrivalPos="31.83" arrivalPosLat="0.00" arrivalSpeed="0.77" duration="6.00" routeLength="24.33" waitingTime="0.00" waitingCount="0" stopTime="0.00" timeLoss="4.36" rerouteNo="0" devices="tripinfo_h11157c1:1 routing_h11157c1:1" vType="passenger2a" speedFactor="1.06" vaporized=""/>
    <tripinfo id="h26305c1:1" depart="27662.00" departLane="--32200#0_0" departPos="1516.98" departPosLat="0.00" departSpeed="0.00" departDelay="0.00" arrival="27663.00" arrivalLane="--32200#0_0" arrivalPos="1020.99" arrivalPosLat="0.00" arrivalSpeed="0.00" duration="1.00" routeLength="-495.98" waitingTime="1.00" waitingCount="1" stopTime="0.00" timeLoss="1.00" rerouteNo="0" devices="tripinfo_h26305c1:1 routing_h26305c1:1" vType="passenger1" speedFactor="1.02" vaporized=""/>
    <tripinfo id="h52724c1:1" depart="27661.00" departLane="-31436#2_0" departPos="86.50" departPosLat="0.00" departSpeed="0.00" departDelay="0.00" arrival="27667.00" arrivalLane="-31436#2_0" arrivalPos="121.73" arrivalPosLat="0.00" arrivalSpeed="3.63" duration="6.00" routeLength="35.23" waitingTime="0.00" waitingCount="0" stopTime="0.00" timeLoss="3.52" rerouteNo="0" devices="tripinfo_h52724c1:1 routing_h52724c1:1" vType="passenger2a" speedFactor="1.02" vaporized=""/>
    <tripinfo id="h55706c1:1" depart="27676.00" departLane="-31636#0_0" departPos="74.03" departPosLat="0.00" departSpeed="0.00" departDelay="0.00" arrival="27677.00" arrivalLane="-31636#0_0" arrivalPos="15.28" arrivalPosLat="0.00" arrivalSpeed="0.00" duration="1.00" routeLength="-58.75" waitingTime="1.00" waitingCount="1" stopTime="0.00" timeLoss="1.00" rerouteNo="0" devices="tripinfo_h55706c1:1" vType="passenger2b" speedFactor="0.94" vaporized=""/>
    <tripinfo id="h11173c1:1" depart="27665.00" departLane="--31074_0" departPos="110.00" departPosLat="0.00" departSpeed="0.00" departDelay="0.00" arrival="27698.00" arrivalLane="--31074_0" arrivalPos="574.98" arrivalPosLat="0.00" arrivalSpeed="0.30" duration="33.00" routeLength="464.99" waitingTime="0.00" waitingCount="0" stopTime="0.00" timeLoss="7.28" rerouteNo="0" devices="tripinfo_h11173c1:1 routing_h11173c1:1" vType="passenger3" speedFactor="1.08" vaporized=""/>
    <tripinfo id="carIn37090:1" depart="27609.00" departLane="-30706#0_0" departPos="235.91" departPosLat="0.00" departSpeed="0.00" departDelay="0.00" arrival="27703.00" arrivalLane="-30496#2_1" arrivalPos="11.36" arrivalPosLat="-1.00" arrivalSpeed="0.09" duration="94.00" routeLength="2533.45" waitingTime="1.00" waitingCount="1" stopTime="0.00" timeLoss="14.25" rerouteNo="0" devices="tripinfo_carIn37090:1 routing_carIn37090:1" vType="passenger2b" speedFactor="1.04" vaporized=""/>
    <tripinfo id="carIn39754:1" depart="27675.00" departLane="-31074_0" departPos="394.58" departPosLat="0.00" departSpeed="0.00" departDelay="0.00" arrival="27718.00" arrivalLane="-30528#57_0" arrivalPos="74.71" arrivalPosLat="0.20" arrivalSpeed="0.10" duration="43.00" routeLength="451.33" waitingTime="0.00" waitingCount="0" stopTime="0.00" timeLoss="7.95" rerouteNo="0" devices="tripinfo_carIn39754:1 routing_carIn39754:1" vType="passenger1" speedFactor="0.80" vaporized=""/>
    <tripinfo id="h55789c1:1" depart="27733.00" departLane="-31636#3_0" departPos="483.60" departPosLat="0.00" departSpeed="0.00" departDelay="0.00" arrival="27734.00" arrivalLane="-31636#3_0" arrivalPos="182.92" arrivalPosLat="0.00" arrivalSpeed="0.00" duration="1.00" routeLength="-300.68" waitingTime="1.00" waitingCount="1" stopTime="0.00" timeLoss="1.00" rerouteNo="0" devices="tripinfo_h55789c1:1" vType="passenger2a" speedFactor="1.08" vaporized=""/>
    <tripinfo id="h7002c1:1" depart="27733.00" departLane="--30766#8_0" departPos="71.32" departPosLat="0.00" departSpeed="0.00" departDelay="0.00" arrival="27741.00" arrivalLane="--30766#8_0" arrivalPos="113.27" arrivalPosLat="0.00" arrivalSpeed="0.26" duration="8.00" routeLength="41.95" waitingTime="0.00" waitingCount="0" stopTime="0.00" timeLoss="4.54" rerouteNo="0" devices="tripinfo_h7002c1:1" vType="passenger1" speedFactor="0.87" vaporized=""/>
    <tripinfo id="carIn38822:1" depart="27742.00" departLane="--30964_0" departPos="352.26" departPosLat="0.00" departSpeed="0.00" departDelay="1.00" arrival="27743.00" arrivalLane="--30964_0" arrivalPos="208.15" arrivalPosLat="0.00" arrivalSpeed="0.00" duration="1.00" routeLength="-144.11" waitingTime="1.00" waitingCount="1" stopTime="0.00" timeLoss="1.00" rerouteNo="0" devices="tripinfo_carIn38822:1 routing_carIn38822:1" vType="passenger1" speedFactor="1.04" vaporized=""/>
    <tripinfo id="carIn42160:1" depart="27749.00" departLane="-32112_0" departPos="294.48" departPosLat="0.00" departSpeed="0.00" departDelay="0.00" arrival="27750.00" arrivalLane="-32112_0" arrivalPos="4.21" arrivalPosLat="0.00" arrivalSpeed="0.00" duration="1.00" routeLength="-290.26" waitingTime="1.00" waitingCount="1" stopTime="0.00" timeLoss="1.00" rerouteNo="0" devices="tripinfo_carIn42160:1" vType="passenger1" speedFactor="1.10" vaporized=""/>
    <tripinfo id="h49720c1:1" depart="27749.00" departLane="-31182_0" departPos="173.17" departPosLat="0.00" departSpeed="0.00" departDelay="0.00" arrival="27750.00" arrivalLane="-31182_0" arrivalPos="165.34" arrivalPosLat="0.00" arrivalSpeed="0.00" duration="1.00" routeLength="-7.83" waitingTime="1.00" waitingCount="1" stopTime="0.00" timeLoss="1.00" rerouteNo="0" devices="tripinfo_h49720c1:1" vType="passenger2b" speedFactor="0.99" vaporized=""/>
    <tripinfo id="h58413c1:1" depart="27749.00" departLane="-31818#9_0" departPos="1403.60" departPosLat="0.00" departSpeed="0.00" departDelay="0.00" arrival="27750.00" arrivalLane="-31818#9_0" arrivalPos="1150.36" arrivalPosLat="0.00" arrivalSpeed="0.00" duration="1.00" routeLength="-253.23" waitingTime="1.00" waitingCount="1" stopTime="0.00" timeLoss="1.00" rerouteNo="0" devices="tripinfo_h58413c1:1" vType="passenger1" speedFactor="1.00" vaporized=""/>
    <tripinfo id="h29071c1:1" depart="27727.00" departLane="--32442_0" departPos="778.50" departPosLat="0.00" departSpeed="0.00" departDelay="0.00" arrival="27751.00" arrivalLane="--32442_0" arrivalPos="1052.24" arrivalPosLat="0.00" arrivalSpeed="0.14" duration="24.00" routeLength="273.74" waitingTime="0.00" waitingCount="0" stopTime="0.00" timeLoss="7.65" rerouteNo="0" devices="tripinfo_h29071c1:1 routing_h29071c1:1" vType="passenger2a" speedFactor="1.00" vaporized=""/>
    <tripinfo id="carIn26678:1" depart="27620.00" departLane="-31622#0_0" departPos="40.03" departPosLat="0.00" departSpeed="0.00" departDelay="2.00" arrival="27753.00" arrivalLane="--32712#1_1" arrivalPos="95.01" arrivalPosLat="0.00" arrivalSpeed="1.11" duration="133.00" routeLength="1910.30" waitingTime="0.00" waitingCount="0" stopTime="0.00" timeLoss="17.53" rerouteNo="1" devices="tripinfo_carIn26678:1 routing_carIn26678:1" vType="passenger3" speedFactor="1.02" vaporized=""/>
    <tripinfo id="h56319c1:1" depart="27757.00" departLane="-31670_0" departPos="6.07" departPosLat="0.00" departSpeed="0.00" departDelay="0.00" arrival="27761.00" arrivalLane="-31670_0" arrivalPos="16.40" arrivalPosLat="0.00" arrivalSpeed="0.21" duration="4.00" routeLength="10.33" waitingTime="0.00" waitingCount="0" stopTime="0.00" timeLoss="3.27" rerouteNo="0" devices="tripinfo_h56319c1:1" vType="passenger2b" speedFactor="1.01" vaporized=""/>
    <tripinfo id="h65167c1:1" depart="27714.00" departLane="-31836_0" departPos="259.32" departPosLat="0.00" departSpeed="0.00" departDelay="0.00" arrival="27762.00" arrivalLane="-31836_0" arrivalPos="951.34" arrivalPosLat="0.00" arrivalSpeed="0.25" duration="48.00" routeLength="692.02" waitingTime="0.00" waitingCount="0" stopTime="0.00" timeLoss="8.61" rerouteNo="0" devices="tripinfo_h65167c1:1" vType="passenger5" speedFactor="1.05" vaporized=""/>
    <tripinfo id="carIn24929:1" depart="27656.00" departLane="-30706#0_0" departPos="160.30" departPosLat="0.00" departSpeed="0.00" departDelay="0.00" arrival="27772.00" arrivalLane="--31260_0" arrivalPos="52.26" arrivalPosLat="0.00" arrivalSpeed="0.15" duration="116.00" routeLength="2547.39" waitingTime="0.00" waitingCount="0" stopTime="0.00" timeLoss="14.95" rerouteNo="0" devices="tripinfo_carIn24929:1" vType="passenger2b" speedFactor="0.94" vaporized=""/>
    <tripinfo id="randUni8952:1" depart="27664.00" departLane="--31110_0" departPos="26.24" departPosLat="0.00" departSpeed="0.00" departDelay="0.00" arrival="27774.00" arrivalLane="--30892#26_0" arrivalPos="203.15" arrivalPosLat="0.00" arrivalSpeed="0.15" duration="110.00" routeLength="1531.06" waitingTime="0.00" waitingCount="0" stopTime="0.00" timeLoss="17.53" rerouteNo="0" devices="tripinfo_randUni8952:1" vType="passenger2a" speedFactor="1.03" vaporized=""/>
    <tripinfo id="h20583c1:1" depart="27774.00" departLane="--31818#8_0" departPos="107.78" departPosLat="0.00" departSpeed="0.00" departDelay="0.00" arrival="27775.00" arrivalLane="--31818#8_0" arrivalPos="31.20" arrivalPosLat="0.00" arrivalSpeed="0.00" duration="1.00" routeLength="-76.58" waitingTime="1.00" waitingCount="1" stopTime="0.00" timeLoss="1.00" rerouteNo="0" devices="tripinfo_h20583c1:1" vType="passenger2b" speedFactor="0.98" vaporized=""/>
    <tripinfo id="h61259c1:1" depart="27759.00" departLane="-31976#3_0" departPos="1.86" departPosLat="0.00" departSpeed="0.00" departDelay="0.00" arrival="27781.00" arrivalLane="-31976#3_0" arrivalPos="217.91" arrivalPosLat="0.00" arrivalSpeed="0.09" duration="22.00" routeLength="216.06" waitingTime="1.00" waitingCount="1" stopTime="0.00" timeLoss="6.68" rerouteNo="0" devices="tripinfo_h61259c1:1 routing_h61259c1:1" vType="passenger1" speedFactor="1.02" vaporized=""/>
    <tripinfo id="h60337c1:1" depart="27773.00" departLane="-31934_0" departPos="87.53" departPosLat="0.00" departSpeed="0.00" departDelay="0.00" arrival="27782.00" arrivalLane="-31934_0" arrivalPos="139.68" arrivalPosLat="0.00" arrivalSpeed="0.11" duration="9.00" routeLength="52.15" waitingTime="0.00" waitingCount="0" stopTime="0.00" timeLoss="4.93" rerouteNo="0" devices="tripinfo_h60337c1:1" vType="passenger2a" speedFactor="0.92" vaporized=""/>
    <tripinfo id="h52691c1:1" depart="27778.00" departLane="-32804_0" departPos="201.16" departPosLat="0.00" departSpeed="0.00" departDelay="0.00" arrival="27782.00" arrivalLane="-32804_0" arrivalPos="204.91" arrivalPosLat="0.00" arrivalSpeed="0.13" duration="4.00" routeLength="3.75" waitingTime="0.00" waitingCount="0" stopTime="0.00" timeLoss="3.71" rerouteNo="0" devices="tripinfo_h52691c1:1" vType="passenger3" speedFactor="0.78" vaporized=""/>
    <tripinfo id="h64228c1:1" depart="27607.00" departLane="-32192#10_0" departPos="41.58" departPosLat="0.00" departSpeed="0.00" departDelay="0.00" arrival="27785.00" arrivalLane="-30844#0_0" arrivalPos="137.88" arrivalPosLat="0.00" arrivalSpeed="0.28" duration="178.00" routeLength="2264.06" waitingTime="0.00" waitingCount="0" stopTime="0.00" timeLoss="28.89" rerouteNo="0" devices="tripinfo_h64228c1:1" vType="passenger2a" speedFactor="0.96" vaporized=""/>
    <tripinfo id="randUni18604:1" depart="27629.00" departLane="-30706#2_0" departPos="3.36" departPosLat="0.00" departSpeed="0.00" departDelay="0.00" arrival="27789.00" arrivalLane="-32332#1_0" arrivalPos="0.12" arrivalPosLat="0.00" arrivalSpeed="0.08" duration="160.00" routeLength="2391.61" waitingTime="1.00" waitingCount="1" stopTime="0.00" timeLoss="23.16" rerouteNo="0" devices="tripinfo_randUni18604:1" vType="passenger2a" speedFactor="0.96" vaporized=""/>
    <tripinfo id="carIn45571:1" depart="27793.00" departLane="-32742#0_0" departPos="1815.80" departPosLat="0.00" departSpeed="0.00" departDelay="0.00" arrival="27794.00" arrivalLane="-32742#0_0" arrivalPos="716.17" arrivalPosLat="0.00" arrivalSpeed="0.00" duration="1.00" routeLength="-1099.62" waitingTime="1.00" waitingCount="1" stopTime="0.00" timeLoss="1.00" rerouteNo="0" devices="tripinfo_carIn45571:1 routing_carIn45571:1" vType="passenger1" speedFactor="1.09" vaporized=""/>
    <tripinfo id="carIn45754:1" depart="27747.00" departLane="-32970_0" departPos="255.41" departPosLat="0.00" departSpeed="0.00" departDelay="0.00" arrival="27799.00" arrivalLane="--30856#19_0" arrivalPos="477.23" arrivalPosLat="0.00" arrivalSpeed="0.19" duration="52.00" routeLength="704.40" waitingTime="0.00" waitingCount="0" stopTime="0.00" timeLoss="9.34" rerouteNo="0" devices="tripinfo_carIn45754:1 routing_carIn45754:1" vType="passenger1" speedFactor="1.14" vaporized=""/>
    <tripinfo id="carIn27620:1" depart="27675.00" departLane="--30964_0" departPos="677.83" departPosLat="0.00" departSpeed="0.00" departDelay="0.00" arrival="27800.00" arrivalLane="--30856#13_0" arrivalPos="147.65" arrivalPosLat="0.00" arrivalSpeed="4.16" duration="125.00" routeLength="1592.19" waitingTime="6.00" waitingCount="1" stopTime="0.00" timeLoss="25.99" rerouteNo="0" devices="tripinfo_carIn27620:1" vType="passenger1" speedFactor="0.98" vaporized=""/>
    <tripinfo id="h44232c1:1" depart="27722.00" departLane="-30820#0_0" departPos="492.05" departPosLat="0.00" departSpeed="0.00" departDelay="0.00" arrival="27800.00" arrivalLane="-32612_0" arrivalPos="155.96" arrivalPosLat="0.00" arrivalSpeed="0.10" duration="78.00" routeLength="1049.81" waitingTime="1.00" waitingCount="1" stopTime="0.00" timeLoss="18.77" rerouteNo="0" devices="tripinfo_h44232c1:1 routing_h44232c1:1" vType="passenger1" speedFactor="1.14" vaporized=""/>
    <tripinfo id="h54406c1:1" depart="27799.00" departLane="-31538#2_0" departPos="52.45" departPosLat="0.00" departSpeed="0.00" departDelay="0.00" arrival="27800.00" arrivalLane="-31538#2_0" arrivalPos="25.07" arrivalPosLat="0.00" arrivalSpeed="0.00" duration="1.00" routeLength="-27.38" waitingTime="1.00" waitingCount="1" stopTime="0.00" timeLoss="1.00" rerouteNo="0" devices="tripinfo_h54406c1:1 routing_h54406c1:1" vType="passenger1" speedFactor="0.93" vaporized=""/>
    <tripinfo id="h55422c1:1" depart="27610.00" departLane="-31602#2_0" departPos="117.00" departPosLat="0.00" departSpeed="0.00" departDelay="0.00" arrival="27810.00" arrivalLane="--31066#5_0" arrivalPos="115.22" arrivalPosLat="0.00" arrivalSpeed="2.19" duration="200.00" routeLength="1761.24" waitingTime="47.00" waitingCount="2" stopTime="0.00" timeLoss="75.30" rerouteNo="1" devices="tripinfo_h55422c1:1 routing_h55422c1:1" vType="passenger2a" speedFactor="1.02" vaporized=""/>
    <tripinfo id="carIn47708:1" depart="27607.00" departLane="-32426#0_0" departPos="71.66" departPosLat="0.00" departSpeed="0.00" departDelay="0.00" arrival="27814.00" arrivalLane="--32866#0_0" arrivalPos="254.68" arrivalPosLat="0.00" arrivalSpeed="0.17" duration="207.00" routeLength="2945.93" waitingTime="0.00" waitingCount="0" stopTime="0.00" timeLoss="24.25" rerouteNo="0" devices="tripinfo_carIn47708:1" vType="passenger2b" speedFactor="0.99" vaporized=""/>
    <tripinfo id="h44766c1:1" depart="27615.00" departLane="-30854#3_0" departPos="34.89" departPosLat="0.00" departSpeed="0.00" departDelay="0.00" arrival="27815.00" arrivalLane="-31462#3_0" arrivalPos="198.34" arrivalPosLat="0.00" arrivalSpeed="0.25" duration="200.00" routeLength="2667.84" waitingTime="0.00" waitingCount="0" stopTime="0.00" timeLoss="26.77" rerouteNo="0" devices="tripinfo_h44766c1:1 routing_h44766c1:1" vType="passenger4" speedFactor="0.98" vaporized=""/>
    <tripinfo id="carIn18651:1" depart="27630.00" departLane="-32426#0_0" departPos="174.26" departPosLat="0.00" departSpeed="0.00" departDelay="2.00" arrival="27818.00" arrivalLane="--32866#1_0" arrivalPos="221.75" arrivalPosLat="0.00" arrivalSpeed="3.69" duration="188.00" routeLength="2076.06" waitingTime="30.00" waitingCount="1" stopTime="0.00" timeLoss="50.84" rerouteNo="1" devices="tripinfo_carIn18651:1 routing_carIn18651:1" vType="passenger4" speedFactor="0.95" vaporized=""/>
    <tripinfo id="carIn5670:1" depart="27674.00" departLane="-30668#0_0" departPos="362.57" departPosLat="0.00" departSpeed="0.00" departDelay="0.00" arrival="27822.00" arrivalLane="-30304#0_0" arrivalPos="220.13" arrivalPosLat="0.00" arrivalSpeed="0.07" duration="148.00" routeLength="1908.07" waitingTime="1.00" waitingCount="1" stopTime="0.00" timeLoss="25.52" rerouteNo="0" devices="tripinfo_carIn5670:1" vType="passenger1" speedFactor="0.96" vaporized=""/>
    <tripinfo id="carIn46686:1" depart="27711.00" departLane="-30706#0_0" departPos="126.02" departPosLat="0.00" departSpeed="0.00" departDelay="0.00" arrival="27824.00" arrivalLane="-31038#0_0" arrivalPos="13.55" arrivalPosLat="0.00" arrivalSpeed="4.36" duration="113.00" routeLength="2855.45" waitingTime="0.00" waitingCount="0" stopTime="0.00" timeLoss="23.85" rerouteNo="0" devices="tripinfo_carIn46686:1 routing_carIn46686:1" vType="passenger2a" speedFactor="1.14" vaporized=""/>
    <tripinfo id="h29400c1:1" depart="27626.00" departLane="--32480_0" departPos="265.22" departPosLat="0.00" departSpeed="0.00" departDelay="0.00" arrival="27827.00" arrivalLane="-31910#6_0" arrivalPos="436.96" arrivalPosLat="0.00" arrivalSpeed="0.18" duration="201.00" routeLength="2281.47" waitingTime="44.00" waitingCount="1" stopTime="0.00" timeLoss="66.69" rerouteNo="0" devices="tripinfo_h29400c1:1 routing_h29400c1:1" vType="passenger1" speedFactor="1.07" vaporized=""/>
    <tripinfo id="carIn42549:1" depart="27613.00" departLane="-32426#0_0" departPos="5.40" departPosLat="0.00" departSpeed="0.00" departDelay="1.00" arrival="27859.00" arrivalLane="-31496#8_0" arrivalPos="37.40" arrivalPosLat="0.00" arrivalSpeed="0.85" duration="246.00" routeLength="6291.32" waitingTime="24.00" waitingCount="1" stopTime="0.00" timeLoss="49.84" rerouteNo="0" devices="tripinfo_carIn42549:1 routing_carIn42549:1" vType="passenger3" speedFactor="1.14" vaporized=""/>
    <tripinfo id="h18132c1:1" depart="27862.00" departLane="--31636#2_0" departPos="729.90" departPosLat="0.00" departSpeed="0.00" departDelay="0.00" arrival="27863.00" arrivalLane="--31636#2_0" arrivalPos="630.05" arrivalPosLat="0.00" arrivalSpeed="0.00" duration="1.00" routeLength="-99.86" waitingTime="1.00" waitingCount="1" stopTime="0.00" timeLoss="1.00" rerouteNo="0" devices="tripinfo_h18132c1:1" vType="passenger2b" speedFactor="1.07" vaporized=""/>
    <tripinfo id="h16564c1:1" depart="27806.00" departLane="-32878#7_0" departPos="1.01" departPosLat="0.00" departSpeed="0.00" departDelay="0.00" arrival="27864.00" arrivalLane="-31786_0" arrivalPos="199.16" arrivalPosLat="0.00" arrivalSpeed="0.75" duration="58.00" routeLength="868.51" waitingTime="0.00" waitingCount="0" stopTime="0.00" timeLoss="12.94" rerouteNo="0" devices="tripinfo_h16564c1:1 routing_h16564c1:1" vType="passenger2b" speedFactor="1.22" vaporized=""/>
    <tripinfo id="h57697c1:1" depart="27841.00" departLane="-31786_0" departPos="585.36" departPosLat="0.00" departSpeed="0.00" departDelay="0.00" arrival="27875.00" arrivalLane="-31786_0" arrivalPos="1011.00" arrivalPosLat="0.00" arrivalSpeed="0.23" duration="34.00" routeLength="425.64" waitingTime="0.00" waitingCount="0" stopTime="0.00" timeLoss="9.98" rerouteNo="0" devices="tripinfo_h57697c1:1 routing_h57697c1:1" vType="passenger2b" speedFactor="1.06" vaporized=""/>
    <tripinfo id="carIn14175:1" depart="27658.00" departLane="-32426#0_0" departPos="148.49" departPosLat="0.00" departSpeed="0.00" departDelay="0.00" arrival="27876.00" arrivalLane="-32952#1_0" arrivalPos="2.62" arrivalPosLat="0.00" arrivalSpeed="0.49" duration="218.00" routeLength="2939.07" waitingTime="15.00" waitingCount="1" stopTime="0.00" timeLoss="41.32" rerouteNo="0" devices="tripinfo_carIn14175:1" vType="passenger1" speedFactor="1.11" vaporized=""/>
    <tripinfo id="carIn24372:1" depart="27721.00" departLane="-30870_0" departPos="222.14" departPosLat="0.00" departSpeed="0.00" departDelay="0.00" arrival="27879.00" arrivalLane="--32750#11_0" arrivalPos="234.06" arrivalPosLat="0.00" arrivalSpeed="0.06" duration="158.00" routeLength="1288.88" waitingTime="39.00" waitingCount="2" stopTime="0.00" timeLoss="54.73" rerouteNo="0" devices="tripinfo_carIn24372:1" vType="passenger2b" speedFactor="0.88" vaporized=""/>
    <tripinfo id="carIn40106:1" depart="27757.00" departLane="--31636#3_0" departPos="298.70" departPosLat="0.00" departSpeed="0.00" departDelay="2.00" arrival="27882.00" arrivalLane="--31112_0" arrivalPos="112.92" arrivalPosLat="0.00" arrivalSpeed="0.10" duration="125.00" routeLength="1510.30" waitingTime="0.00" waitingCount="0" stopTime="0.00" timeLoss="21.60" rerouteNo="0" devices="tripinfo_carIn40106:1" vType="passenger2a" speedFactor="1.01" vaporized=""/>
    <tripinfo id="carIn23142:1" depart="27647.00" departLane="--31568_0" departPos="76.19" departPosLat="0.00" departSpeed="0.00" departDelay="0.00" arrival="27885.00" arrivalLane="-32952#1_0" arrivalPos="13.11" arrivalPosLat="0.00" arrivalSpeed="0.42" duration="238.00" routeLength="2891.73" waitingTime="0.00" waitingCount="0" stopTime="0.00" timeLoss="26.10" rerouteNo="0" devices="tripinfo_carIn23142:1" vType="passenger3" speedFactor="0.97" vaporized=""/>
    <tripinfo id="h4578c2:1" depart="27643.00" departLane="-30590#7_0" departPos="408.98" departPosLat="0.00" departSpeed="0.00" departDelay="0.00" arrival="27886.00" arrivalLane="-31452#0_0" arrivalPos="1677.47" arrivalPosLat="0.00" arrivalSpeed="0.70" duration="243.00" routeLength="3465.42" waitingTime="16.00" waitingCount="1" stopTime="0.00" timeLoss="36.38" rerouteNo="0" devices="tripinfo_h4578c2:1 routing_h4578c2:1" vType="passenger5" speedFactor="1.11" vaporized=""/>
    <tripinfo id="carIn16097:1" depart="27650.00" departLane="-32426#0_0" departPos="1.57" departPosLat="0.00" departSpeed="0.00" departDelay="0.00" arrival="27887.00" arrivalLane="-32306#4_1" arrivalPos="14.29" arrivalPosLat="-1.30" arrivalSpeed="0.35" duration="237.00" routeLength="5956.51" waitingTime="0.00" waitingCount="0" stopTime="0.00" timeLoss="30.06" rerouteNo="0" devices="tripinfo_carIn16097:1 routing_carIn16097:1" vType="passenger1" speedFactor="1.04" vaporized=""/>
    <tripinfo id="carIn18150:1" depart="27732.00" departLane="-30668#0_0" departPos="359.71" departPosLat="0.00" departSpeed="0.00" departDelay="0.00" arrival="27887.00" arrivalLane="--31894#1_0" arrivalPos="17.46" arrivalPosLat="0.00" arrivalSpeed="0.18" duration="155.00" routeLength="2875.12" waitingTime="0.00" waitingCount="0" stopTime="0.00" timeLoss="40.64" rerouteNo="0" devices="tripinfo_carIn18150:1 routing_carIn18150:1" vType="passenger1" speedFactor="1.01" vaporized=""/>
    <tripinfo id="h16899c1:1" depart="27880.00" departLane="--31538#1_0" departPos="2.55" departPosLat="0.00" departSpeed="0.00" departDelay="0.00" arrival="27888.00" arrivalLane="--31538#1_0" arrivalPos="33.17" arrivalPosLat="0.00" arrivalSpeed="0.10" duration="8.00" routeLength="30.61" waitingTime="1.00" waitingCount="1" stopTime="0.00" timeLoss="5.85" rerouteNo="0" devices="tripinfo_h16899c1:1 routing_h16899c1:1" vType="passenger1" speedFactor="1.02" vaporized=""/>
    <tripinfo id="h73840c1:1" depart="27887.00" departLane="-32910_0" departPos="696.64" departPosLat="0.00" departSpeed="0.00" departDelay="0.00" arrival="27888.00" arrivalLane="-32910_0" arrivalPos="59.56" arrivalPosLat="0.00" arrivalSpeed="0.00" duration="1.00" routeLength="-637.08" waitingTime="1.00" waitingCount="1" stopTime="0.00" timeLoss="1.00" rerouteNo="0" devices="tripinfo_h73840c1:1" vType="passenger2b" speedFactor="1.09" vaporized=""/>
    <tripinfo id="carIn40810:1" depart="27786.00" departLane="--30314#1_0" departPos="30.28" departPosLat="0.00" departSpeed="0.00" departDelay="0.00" arrival="27891.00" arrivalLane="-30314#1_0" arrivalPos="63.12" arrivalPosLat="0.00" arrivalSpeed="0.09" duration="105.00" routeLength="1045.80" waitingTime="18.00" waitingCount="2" stopTime="0.00" timeLoss="45.12" rerouteNo="0" devices="tripinfo_carIn40810:1 routing_carIn40810:1" vType="passenger5" speedFactor="0.96" vaporized=""/>
    <tripinfo id="h26579c1:1" depart="27635.00" departLane="--32230#2_0" departPos="119.54" departPosLat="0.00" departSpeed="0.00" departDelay="1.00" arrival="27892.00" arrivalLane="--30648#0_0" arrivalPos="97.27" arrivalPosLat="0.00" arrivalSpeed="2.55" duration="257.00" routeLength="2387.24" waitingTime="48.00" waitingCount="4" stopTime="0.00" timeLoss="84.58" rerouteNo="0" devices="tripinfo_h26579c1:1 routing_h26579c1:1" vType="passenger2a" speedFactor="0.96" vaporized=""/>
    <tripinfo id="h60335c1:1" depart="27893.00" departLane="-31934_0" departPos="206.64" departPosLat="0.00" departSpeed="0.00" departDelay="0.00" arrival="27894.00" arrivalLane="-31934_0" arrivalPos="130.82" arrivalPosLat="0.00" arrivalSpeed="0.00" duration="1.00" routeLength="-75.82" waitingTime="1.00" waitingCount="1" stopTime="0.00" timeLoss="1.00" rerouteNo="0" devices="tripinfo_h60335c1:1 routing_h60335c1:1" vType="passenger4" speedFactor="0.97" vaporized=""/>
    <tripinfo id="carIn2386:1" depart="27745.00" departLane="--30542#1_0" departPos="40.17" departPosLat="0.00" departSpeed="0.00" departDelay="61.00" arrival="27896.00" arrivalLane="--30722_1" arrivalPos="19.67" arrivalPosLat="0.00" arrivalSpeed="0.52" duration="151.00" routeLength="698.20" waitingTime="69.00" waitingCount="5" stopTime="0.00" timeLoss="107.93" rerouteNo="0" devices="tripinfo_carIn2386:1" vType="passenger2b" speedFactor="1.16" vaporized=""/>
    <tripinfo id="carIn21938:1" depart="27800.00" departLane="-30668#0_0" departPos="42.22" departPosLat="0.00" departSpeed="0.00" departDelay="0.00" arrival="27898.00" arrivalLane="-31786_0" arrivalPos="310.84" arrivalPosLat="0.00" arrivalSpeed="0.15" duration="98.00" routeLength="1780.48" waitingTime="0.00" waitingCount="0" stopTime="0.00" timeLoss="20.57" rerouteNo="0" devices="tripinfo_carIn21938:1" vType="passenger3" speedFactor="1.10" vaporized=""/>
    <tripinfo id="h62761c1:1" depart="27887.00" departLane="-30870_0" departPos="236.03" departPosLat="0.00" departSpeed="0.00" departDelay="0.00" arrival="27900.00" arrivalLane="-30870_0" arrivalPos="309.06" arrivalPosLat="0.00" arrivalSpeed="0.16" duration="13.00" routeLength="73.02" waitingTime="0.00" waitingCount="0" stopTime="0.00" timeLoss="7.28" rerouteNo="0" devices="tripinfo_h62761c1:1 routing_h62761c1:1" vType="passenger1" speedFactor="0.92" vaporized=""/>
    <tripinfo id="carIn7505:1" depart="27649.00" departLane="-31074_0" departPos="696.35" departPosLat="0.00" departSpeed="0.00" departDelay="0.00" arrival="27909.00" arrivalLane="-32756#2_0" arrivalPos="33.31" arrivalPosLat="0.00" arrivalSpeed="0.18" duration="260.00" routeLength="2976.87" waitingTime="24.00" waitingCount="1" stopTime="0.00" timeLoss="54.64" rerouteNo="1" devices="tripinfo_carIn7505:1 routing_carIn7505:1" vType="passenger1" speedFactor="1.01" vaporized=""/>
    <tripinfo id="h14265c1:1" depart="27609.00" departLane="--31938_0" departPos="22.03" departPosLat="0.00" departSpeed="0.00" departDelay="0.00" arrival="27912.00" arrivalLane="-32400#5_2" arrivalPos="43.87" arrivalPosLat="0.00" arrivalSpeed="3.56" duration="303.00" routeLength="4748.39" waitingTime="21.00" waitingCount="2" stopTime="0.00" timeLoss="63.77" rerouteNo="0" devices="tripinfo_h14265c1:1 routing_h14265c1:1" vType="passenger1" speedFactor="1.09" vaporized=""/>