<?xml version="1.0" encoding="UTF-8"?>

<!-- generated on 12/26/20 16:40:04 by Eclipse SUMO GUI Version 1.6.0
<configuration xmlns:xsi="http://www.w3.org/2001/XMLSchema-instance" xsi:noNamespaceSchemaLocation="http://sumo.dlr.de/xsd/sumoConfiguration.xsd">

    <input>
        <net-file value="C:\Users\John\src\Sumo\bin\scenario\lust.net.xml"/>
        <route-files value="C:\Users\John\src\Sumo\bin\scenario\DUARoutes/ccuits.rou.xml"/>
        <additional-files value="C:\Users\John\src\Sumo\bin\scenario\vtypes.add.xml,C:\Users\John\src\Sumo\bin\scenario\busstops.add.xml,C:\Users\John\src\Sumo\bin\scenario\e1detectors.add.xml,C:\Users\John\src\Sumo\bin\scenario\lust.poly.xml"/>
    </input>

    <output>
        <summary-output value="C:\Users\John\src\Sumo\bin\scenario\ccu.summary.xml"/>
        <tripinfo-output value="C:\Users\John\src\Sumo\bin\scenario\ccu.tripinfo.xml"/>
    </output>

    <time>
        <begin value="0"/>
        <step-length value="1"/>
    </time>

    <processing>
        <ignore-junction-blocker value="20"/>
        <time-to-teleport value="600"/>
        <max-depart-delay value="600"/>
    </processing>

    <routing>
        <routing-algorithm value="dijkstra"/>
        <device.rerouting.probability value="0.7"/>
        <device.rerouting.period value="300"/>
        <device.rerouting.pre-period value="300"/>
    </routing>

    <report>
        <verbose value="true"/>
        <log value="C:\Users\John\src\Sumo\bin\scenario\dua.actuated.log"/>
    </report>

    <gui_only>
        <tracker-interval value="1"/>
    </gui_only>

</configuration>
-->

<tripinfos xmlns:xsi="http://www.w3.org/2001/XMLSchema-instance" xsi:noNamespaceSchemaLocation="http://sumo.dlr.de/xsd/tripinfo_file.xsd">
    <tripinfo id="h17388c1:1" depart="393.00" departLane="--31576#1_0" departPos="131.01" departSpeed="0.00" departDelay="0.00" arrival="394.00" arrivalLane="--31576#1_0" arrivalPos="83.99" arrivalSpeed="0.00" duration="1.00" routeLength="-47.03" waitingTime="1.00" waitingCount="1" stopTime="0.00" timeLoss="1.00" rerouteNo="0" devices="tripinfo_h17388c1:1 routing_h17388c1:1" vType="passenger3" speedFactor="0.86" vaporized=""/>
    <tripinfo id="h54901c1:1" depart="405.00" departLane="-31576#1_0" departPos="85.18" departSpeed="0.00" departDelay="0.00" arrival="417.00" arrivalLane="-31576#1_0" arrivalPos="172.60" arrivalSpeed="1.21" duration="12.00" routeLength="87.42" waitingTime="0.00" waitingCount="0" stopTime="0.00" timeLoss="4.65" rerouteNo="0" devices="tripinfo_h54901c1:1" vType="passenger2a" speedFactor="0.85" vaporized=""/>
    <tripinfo id="h46063c1:1" depart="453.00" departLane="-30918_0" departPos="17.68" departSpeed="0.00" departDelay="0.00" arrival="457.00" arrivalLane="-30918_0" arrivalPos="29.03" arrivalSpeed="1.37" duration="4.00" routeLength="11.35" waitingTime="0.00" waitingCount="0" stopTime="0.00" timeLoss="3.27" rerouteNo="0" devices="tripinfo_h46063c1:1 routing_h46063c1:1" vType="passenger2a" speedFactor="1.10" vaporized=""/>
    <tripinfo id="ccu202011282" depart="397.00" departLane="-30852_0" departPos="87.40" departSpeed="20.00" departDelay="0.00" arrival="510.00" arrivalLane="-32948#1_0" arrivalPos="51.85" arrivalSpeed="19.20" duration="113.00" routeLength="2123.90" waitingTime="0.00" waitingCount="0" stopTime="0.00" timeLoss="19.32" rerouteNo="1" devices="tripinfo_ccu202011282 routing_ccu202011282" vType="police" speedFactor="1.50" vaporized=""/>
    <tripinfo id="ccu202011283" depart="400.00" departLane="-30852_0" departPos="87.40" departSpeed="20.00" departDelay="0.00" arrival="515.00" arrivalLane="-32948#1_0" arrivalPos="51.85" arrivalSpeed="19.16" duration="115.00" routeLength="2123.90" waitingTime="0.00" waitingCount="0" stopTime="0.00" timeLoss="20.63" rerouteNo="1" devices="tripinfo_ccu202011283 routing_ccu202011283" vType="police" speedFactor="1.50" vaporized=""/>
    <tripinfo id="ccu202011281" depart="392.00" departLane="-30852_0" departPos="87.40" departSpeed="20.00" departDelay="0.00" arrival="522.00" arrivalLane="-32948#1_0" arrivalPos="51.85" arrivalSpeed="17.34" duration="130.00" routeLength="2186.73" waitingTime="0.00" waitingCount="0" stopTime="0.00" timeLoss="25.49" rerouteNo="0" devices="tripinfo_ccu202011281" vType="police" speedFactor="1.50" vaporized=""/>
    <tripinfo id="ccu202011284" depart="416.00" departLane="-30852_0" departPos="87.40" departSpeed="20.00" departDelay="0.00" arrival="536.00" arrivalLane="-32948#1_0" arrivalPos="51.85" arrivalSpeed="19.68" duration="120.00" routeLength="2123.90" waitingTime="0.00" waitingCount="0" stopTime="0.00" timeLoss="26.09" rerouteNo="1" devices="tripinfo_ccu202011284 routing_ccu202011284" vType="police" speedFactor="1.50" vaporized=""/>
    <tripinfo id="carIn37947:1" depart="508.00" departLane="-32792#0_0" departPos="1238.66" departSpeed="0.00" departDelay="0.00" arrival="549.00" arrivalLane="-32122#0_0" arrivalPos="208.71" arrivalSpeed="0.16" duration="41.00" routeLength="504.49" waitingTime="0.00" waitingCount="0" stopTime="0.00" timeLoss="7.98" rerouteNo="0" devices="tripinfo_carIn37947:1" vType="passenger2a" speedFactor="1.00" vaporized=""/>
    <tripinfo id="h43868c2:1" depart="538.00" departLane="-30792_0" departPos="36.07" departSpeed="0.00" departDelay="0.00" arrival="549.00" arrivalLane="-30792_0" arrivalPos="109.62" arrivalSpeed="0.10" duration="11.00" routeLength="73.54" waitingTime="0.00" waitingCount="0" stopTime="0.00" timeLoss="6.32" rerouteNo="0" devices="tripinfo_h43868c2:1" vType="passenger2b" speedFactor="1.13" vaporized=""/>
    <tripinfo id="h12368c1:1" depart="536.00" departLane="--31172_0" departPos="44.53" departSpeed="0.00" departDelay="0.00" arrival="551.00" arrivalLane="--31172_0" arrivalPos="173.08" arrivalSpeed="0.15" duration="15.00" routeLength="128.56" waitingTime="0.00" waitingCount="0" stopTime="0.00" timeLoss="6.43" rerouteNo="0" devices="tripinfo_h12368c1:1" vType="passenger2b" speedFactor="1.08" vaporized=""/>
    <tripinfo id="h32763c1:1" depart="452.00" departLane="--31176#1_0" departPos="27.96" departSpeed="0.00" departDelay="0.00" arrival="553.00" arrivalLane="-30930_0" arrivalPos="12.34" arrivalSpeed="0.40" duration="101.00" routeLength="1123.53" waitingTime="4.00" waitingCount="1" stopTime="0.00" timeLoss="19.82" rerouteNo="0" devices="tripinfo_h32763c1:1 routing_h32763c1:1" vType="passenger1" speedFactor="0.87" vaporized=""/>
    <tripinfo id="h68742c1:1" depart="537.00" departLane="-32542#0_0" departPos="62.18" departSpeed="0.00" departDelay="0.00" arrival="553.00" arrivalLane="-32542#0_0" arrivalPos="193.48" arrivalSpeed="0.22" duration="16.00" routeLength="131.30" waitingTime="0.00" waitingCount="0" stopTime="0.00" timeLoss="7.31" rerouteNo="0" devices="tripinfo_h68742c1:1 routing_h68742c1:1" vType="passenger1" speedFactor="1.09" vaporized=""/>
    <tripinfo id="h33084c1:1" depart="544.00" departLane="--32756#0_0" departPos="1495.44" departSpeed="0.00" departDelay="0.00" arrival="553.00" arrivalLane="--32756#0_0" arrivalPos="1545.06" arrivalSpeed="0.16" duration="9.00" routeLength="49.62" waitingTime="0.00" waitingCount="0" stopTime="0.00" timeLoss="5.09" rerouteNo="0" devices="tripinfo_h33084c1:1 routing_h33084c1:1" vType="passenger2b" speedFactor="0.91" vaporized=""/>
    <tripinfo id="ccu202011287" depart="433.00" departLane="-30852_0" departPos="87.40" departSpeed="20.00" departDelay="0.00" arrival="557.00" arrivalLane="-32948#1_0" arrivalPos="51.85" arrivalSpeed="19.84" duration="124.00" routeLength="2123.90" waitingTime="0.00" waitingCount="0" stopTime="0.00" timeLoss="30.15" rerouteNo="1" devices="tripinfo_ccu202011287 routing_ccu202011287" vType="police" speedFactor="1.50" vaporized=""/>
    <tripinfo id="h41687c2:1" depart="398.00" departLane="-30674_0" departPos="32.76" departSpeed="0.00" departDelay="0.00" arrival="565.00" arrivalLane="--30528#39_0" arrivalPos="402.40" arrivalSpeed="0.09" duration="167.00" routeLength="2381.09" waitingTime="4.00" waitingCount="2" stopTime="0.00" timeLoss="27.14" rerouteNo="0" devices="tripinfo_h41687c2:1 routing_h41687c2:1" vType="passenger4" speedFactor="1.13" vaporized=""/>
    <tripinfo id="carIn12912:1" depart="539.00" departLane="-32766_0" departPos="1769.22" departSpeed="0.00" departDelay="0.00" arrival="574.00" arrivalLane="--32766_1" arrivalPos="41.32" arrivalSpeed="0.17" duration="35.00" routeLength="312.12" waitingTime="0.00" waitingCount="0" stopTime="0.00" timeLoss="10.09" rerouteNo="0" devices="tripinfo_carIn12912:1" vType="passenger1" speedFactor="0.85" vaporized=""/>
    <tripinfo id="h26039c1:1" depart="417.00" departLane="--32192#0_0" departPos="34.70" departSpeed="0.00" departDelay="0.00" arrival="594.00" arrivalLane="-31910#8_0" arrivalPos="477.92" arrivalSpeed="0.29" duration="177.00" routeLength="2239.45" waitingTime="0.00" waitingCount="0" stopTime="0.00" timeLoss="18.80" rerouteNo="0" devices="tripinfo_h26039c1:1" vType="passenger2b" speedFactor="0.92" vaporized=""/>
    <tripinfo id="carIn21295:1" depart="440.00" departLane="-32792#0_0" departPos="740.27" departSpeed="0.00" departDelay="0.00" arrival="594.00" arrivalLane="-32170#1_0" arrivalPos="169.47" arrivalSpeed="0.11" duration="154.00" routeLength="1795.15" waitingTime="13.00" waitingCount="1" stopTime="0.00" timeLoss="33.92" rerouteNo="0" devices="tripinfo_carIn21295:1 routing_carIn21295:1" vType="passenger2a" speedFactor="0.99" vaporized=""/>
    <tripinfo id="carIn31184:1" depart="415.00" departLane="--30542#1_0" departPos="12.75" departSpeed="0.00" departDelay="0.00" arrival="599.00" arrivalLane="--30892#6_0" arrivalPos="16.52" arrivalSpeed="0.09" duration="184.00" routeLength="1307.84" waitingTime="46.00" waitingCount="5" stopTime="0.00" timeLoss="92.99" rerouteNo="1" devices="tripinfo_carIn31184:1 routing_carIn31184:1" vType="passenger2a" speedFactor="1.03" vaporized=""/>
    <tripinfo id="carIn3246:1" depart="437.00" departLane="-32426#0_0" departPos="0.54" departSpeed="0.00" departDelay="0.00" arrival="600.00" arrivalLane="-30590#8_0" arrivalPos="291.64" arrivalSpeed="2.55" duration="163.00" routeLength="2315.14" waitingTime="5.00" waitingCount="1" stopTime="0.00" timeLoss="26.66" rerouteNo="1" devices="tripinfo_carIn3246:1 routing_carIn3246:1" vType="passenger4" speedFactor="1.06" vaporized=""/>
    <tripinfo id="h44756c1:1" depart="475.00" departLane="-30854#3_0" departPos="35.56" departSpeed="0.00" departDelay="0.00" arrival="601.00" arrivalLane="--32696#1_0" arrivalPos="41.95" arrivalSpeed="0.20" duration="126.00" routeLength="1483.45" waitingTime="0.00" waitingCount="0" stopTime="0.00" timeLoss="15.84" rerouteNo="1" devices="tripinfo_h44756c1:1 routing_h44756c1:1" vType="passenger2a" speedFactor="0.97" vaporized=""/>
    <tripinfo id="h44759c2:1" depart="475.00" departLane="-30854#3_0" departPos="18.96" departSpeed="0.00" departDelay="0.00" arrival="603.00" arrivalLane="-31712#1_0" arrivalPos="30.25" arrivalSpeed="0.06" duration="128.00" routeLength="1441.67" waitingTime="3.00" waitingCount="2" stopTime="0.00" timeLoss="23.92" rerouteNo="0" devices="tripinfo_h44759c2:1 routing_h44759c2:1" vType="passenger2b" speedFactor="0.97" vaporized=""/>
    <tripinfo id="ccu202011286" depart="425.00" departLane="-30852_0" departPos="87.40" departSpeed="20.00" departDelay="0.00" arrival="609.00" arrivalLane="-32948#1_0" arrivalPos="51.85" arrivalSpeed="15.99" duration="184.00" routeLength="2186.73" waitingTime="38.00" waitingCount="2" stopTime="0.00" timeLoss="79.42" rerouteNo="0" devices="tripinfo_ccu202011286" vType="police" speedFactor="1.50" vaporized=""/>
    <tripinfo id="carIn11614:1" depart="424.00" departLane="--32552#6_0" departPos="617.20" departSpeed="0.00" departDelay="0.00" arrival="613.00" arrivalLane="--32710#0_0" arrivalPos="140.88" arrivalSpeed="1.95" duration="189.00" routeLength="2597.39" waitingTime="0.00" waitingCount="0" stopTime="0.00" timeLoss="13.39" rerouteNo="0" devices="tripinfo_carIn11614:1" vType="passenger1" speedFactor="1.06" vaporized=""/>
    <tripinfo id="h60855c1:1" depart="452.00" departLane="-31960#1_0" departPos="52.46" departSpeed="0.00" departDelay="0.00" arrival="624.00" arrivalLane="-30856#16_0" arrivalPos="355.68" arrivalSpeed="0.23" duration="172.00" routeLength="1717.96" waitingTime="31.00" waitingCount="1" stopTime="0.00" timeLoss="60.44" rerouteNo="1" devices="tripinfo_h60855c1:1 routing_h60855c1:1" vType="passenger1" speedFactor="1.11" vaporized=""/>
    <tripinfo id="h25678c1:1" depart="402.00" departLane="--32172#3_0" departPos="38.91" departSpeed="0.00" departDelay="0.00" arrival="627.00" arrivalLane="--30402_0" arrivalPos="257.66" arrivalSpeed="0.13" duration="225.00" routeLength="2221.61" waitingTime="39.00" waitingCount="1" stopTime="0.00" timeLoss="62.26" rerouteNo="0" devices="tripinfo_h25678c1:1 routing_h25678c1:1" vType="passenger1" speedFactor="0.96" vaporized=""/>
    <tripinfo id="h74821c1:1" depart="429.00" departLane="-32968#3_0" departPos="293.84" departSpeed="0.00" departDelay="0.00" arrival="628.00" arrivalLane="--30358#18_0" arrivalPos="39.31" arrivalSpeed="0.30" duration="199.00" routeLength="2149.12" waitingTime="56.00" waitingCount="2" stopTime="0.00" timeLoss="85.71" rerouteNo="0" devices="tripinfo_h74821c1:1 routing_h74821c1:1" vType="passenger1" speedFactor="1.15" vaporized=""/>
    <tripinfo id="carIn43561:1" depart="478.00" departLane="--30542#1_0" departPos="16.40" departSpeed="0.00" departDelay="14.00" arrival="628.00" arrivalLane="-31804_0" arrivalPos="94.87" arrivalSpeed="0.17" duration="150.00" routeLength="861.97" waitingTime="54.00" waitingCount="2" stopTime="0.00" timeLoss="86.65" rerouteNo="0" devices="tripinfo_carIn43561:1 routing_carIn43561:1" vType="passenger4" speedFactor="0.98" vaporized=""/>
    <tripinfo id="h48583c1:1" depart="431.00" departLane="-31096#1_0" departPos="77.49" departSpeed="0.00" departDelay="0.00" arrival="640.00" arrivalLane="-31622#16_0" arrivalPos="181.25" arrivalSpeed="0.09" duration="209.00" routeLength="3035.55" waitingTime="1.00" waitingCount="1" stopTime="0.00" timeLoss="26.34" rerouteNo="0" devices="tripinfo_h48583c1:1" vType="passenger1" speedFactor="1.01" vaporized=""/>
    <tripinfo id="h51446c1:1" depart="600.00" departLane="-31340#0_0" departPos="153.86" departSpeed="0.00" departDelay="0.00" arrival="642.00" arrivalLane="-31340#0_0" arrivalPos="610.34" arrivalSpeed="0.34" duration="42.00" routeLength="456.49" waitingTime="0.00" waitingCount="0" stopTime="0.00" timeLoss="7.90" rerouteNo="0" devices="tripinfo_h51446c1:1 routing_h51446c1:1" vType="passenger3" speedFactor="0.96" vaporized=""/>
    <tripinfo id="carIn19123:1" depart="477.00" departLane="-31622#0_0" departPos="30.62" departSpeed="0.00" departDelay="0.00" arrival="643.00" arrivalLane="-32278#4_0" arrivalPos="478.14" arrivalSpeed="0.18" duration="166.00" routeLength="2248.83" waitingTime="7.00" waitingCount="1" stopTime="0.00" timeLoss="31.47" rerouteNo="0" devices="tripinfo_carIn19123:1" vType="passenger3" speedFactor="1.05" vaporized=""/>
    <tripinfo id="carIn46370:1" depart="430.00" departLane="-30668#0_0" departPos="97.27" departSpeed="0.00" departDelay="1.00" arrival="655.00" arrivalLane="--31466#3_0" arrivalPos="53.76" arrivalSpeed="0.24" duration="225.00" routeLength="5069.16" waitingTime="34.00" waitingCount="1" stopTime="0.00" timeLoss="63.13" rerouteNo="0" devices="tripinfo_carIn46370:1 routing_carIn46370:1" vType="passenger1" speedFactor="1.10" vaporized=""/>
    <tripinfo id="carIn9904:1" depart="436.00" departLane="--30542#1_0" departPos="20.03" departSpeed="0.00" departDelay="0.00" arrival="657.00" arrivalLane="--31966#10_0" arrivalPos="146.13" arrivalSpeed="0.70" duration="221.00" routeLength="1699.10" waitingTime="82.00" waitingCount="3" stopTime="0.00" timeLoss="111.59" rerouteNo="0" devices="tripinfo_carIn9904:1 routing_carIn9904:1" vType="passenger2a" speedFactor="1.00" vaporized=""/>
    <tripinfo id="carIn39016:1" depart="400.00" departLane="-32426#0_0" departPos="33.71" departSpeed="0.00" departDelay="1.00" arrival="659.00" arrivalLane="-31652#0_0" arrivalPos="69.10" arrivalSpeed="4.03" duration="259.00" routeLength="6589.58" waitingTime="18.00" waitingCount="1" stopTime="0.00" timeLoss="42.47" rerouteNo="1" devices="tripinfo_carIn39016:1 routing_carIn39016:1" vType="passenger1" speedFactor="1.15" vaporized=""/>
    <tripinfo id="carIn44515:1" depart="470.00" departLane="-32766_0" departPos="1105.25" departSpeed="0.00" departDelay="0.00" arrival="664.00" arrivalLane="-31496#3_1" arrivalPos="34.98" arrivalSpeed="0.16" duration="194.00" routeLength="2570.19" waitingTime="23.00" waitingCount="2" stopTime="0.00" timeLoss="58.35" rerouteNo="0" devices="tripinfo_carIn44515:1 routing_carIn44515:1" vType="passenger1" speedFactor="1.26" vaporized=""/>
    <tripinfo id="carIn49458:1" depart="475.00" departLane="-30762#0_0" departPos="310.13" departSpeed="0.00" departDelay="0.00" arrival="666.00" arrivalLane="--30590#8_0" arrivalPos="229.49" arrivalSpeed="0.20" duration="191.00" routeLength="3335.12" waitingTime="0.00" waitingCount="0" stopTime="0.00" timeLoss="20.12" rerouteNo="0" devices="tripinfo_carIn49458:1" vType="passenger2a" speedFactor="1.19" vaporized=""/>
    <tripinfo id="carIn49457:1" depart="398.00" departLane="-30668#0_0" departPos="200.41" departSpeed="0.00" departDelay="1.00" arrival="667.00" arrivalLane="-30314#1_0" arrivalPos="89.89" arrivalSpeed="0.43" duration="269.00" routeLength="3056.95" waitingTime="40.00" waitingCount="3" stopTime="0.00" timeLoss="78.56" rerouteNo="0" devices="tripinfo_carIn49457:1" vType="passenger2a" speedFactor="0.98" vaporized=""/>
    <tripinfo id="carIn47242:1" depart="454.00" departLane="--31636#3_0" departPos="423.89" departSpeed="0.00" departDelay="0.00" arrival="669.00" arrivalLane="--30528#44_0" arrivalPos="61.23" arrivalSpeed="0.11" duration="215.00" routeLength="2198.46" waitingTime="30.00" waitingCount="2" stopTime="0.00" timeLoss="54.07" rerouteNo="0" devices="tripinfo_carIn47242:1 routing_carIn47242:1" vType="passenger4" speedFactor="0.83" vaporized=""/>
    <tripinfo id="carIn14586:1" depart="578.00" departLane="-32426#0_0" departPos="45.98" departSpeed="0.00" departDelay="0.00" arrival="671.00" arrivalLane="-31366#3_0" arrivalPos="18.70" arrivalSpeed="0.19" duration="93.00" routeLength="1447.96" waitingTime="0.00" waitingCount="0" stopTime="0.00" timeLoss="27.00" rerouteNo="0" devices="tripinfo_carIn14586:1 routing_carIn14586:1" vType="passenger2a" speedFactor="1.05" vaporized=""/>
    <tripinfo id="carIn37215:1" depart="410.00" departLane="-30254#0_0" departPos="8.77" departSpeed="0.00" departDelay="0.00" arrival="672.00" arrivalLane="--30856#2_0" arrivalPos="17.38" arrivalSpeed="0.08" duration="262.00" routeLength="2744.60" waitingTime="35.00" waitingCount="2" stopTime="0.00" timeLoss="61.80" rerouteNo="0" devices="tripinfo_carIn37215:1" vType="passenger2b" speedFactor="0.99" vaporized=""/>
    <tripinfo id="carIn943:1" depart="448.00" departLane="-31114_0" departPos="32.62" departSpeed="0.00" departDelay="0.00" arrival="674.00" arrivalLane="--30860#10_0" arrivalPos="77.06" arrivalSpeed="0.17" duration="226.00" routeLength="3371.92" waitingTime="0.00" waitingCount="0" stopTime="0.00" timeLoss="17.93" rerouteNo="0" devices="tripinfo_carIn943:1 routing_carIn943:1" vType="passenger3" speedFactor="0.97" vaporized=""/>
    <tripinfo id="h6354c1:1" depart="446.00" departLane="--30740#2_0" departPos="66.97" departSpeed="0.00" departDelay="0.00" arrival="679.00" arrivalLane="-32410#3_0" arrivalPos="8.08" arrivalSpeed="0.23" duration="233.00" routeLength="2117.28" waitingTime="57.00" waitingCount="1" stopTime="0.00" timeLoss="92.13" rerouteNo="0" devices="tripinfo_h6354c1:1 routing_h6354c1:1" vType="passenger4" speedFactor="1.08" vaporized=""/>
    <tripinfo id="carIn1189:1" depart="447.00" departLane="--30542#1_0" departPos="25.31" departSpeed="0.00" departDelay="3.00" arrival="680.00" arrivalLane="-30346#0_0" arrivalPos="53.37" arrivalSpeed="0.10" duration="233.00" routeLength="1265.36" waitingTime="109.00" waitingCount="5" stopTime="0.00" timeLoss="149.40" rerouteNo="0" devices="tripinfo_carIn1189:1" vType="passenger3" speedFactor="1.09" vaporized=""/>
    <tripinfo id="carIn25916:1" depart="560.00" departLane="-30762#0_0" departPos="604.94" departSpeed="0.00" departDelay="0.00" arrival="682.00" arrivalLane="-32756#0_0" arrivalPos="1075.91" arrivalSpeed="0.11" duration="122.00" routeLength="1513.15" waitingTime="0.00" waitingCount="0" stopTime="0.00" timeLoss="12.61" rerouteNo="0" devices="tripinfo_carIn25916:1 routing_carIn25916:1" vType="passenger2a" speedFactor="0.95" vaporized=""/>
    <tripinfo id="randUni4940:1" depart="611.00" departLane="--31284_0" departPos="41.35" departSpeed="0.00" departDelay="0.00" arrival="685.00" arrivalLane="-31136#1_0" arrivalPos="31.62" arrivalSpeed="0.09" duration="74.00" routeLength="844.20" waitingTime="1.00" waitingCount="1" stopTime="0.00" timeLoss="9.80" rerouteNo="0" devices="tripinfo_randUni4940:1 routing_randUni4940:1" vType="passenger5" speedFactor="0.95" vaporized=""/>
    <tripinfo id="carIn49990:1" depart="471.00" departLane="--32552#6_0" departPos="23.07" departSpeed="0.00" departDelay="0.00" arrival="686.00" arrivalLane="--32552#4_0" arrivalPos="185.02" arrivalSpeed="0.17" duration="215.00" routeLength="1969.33" waitingTime="30.00" waitingCount="1" stopTime="0.00" timeLoss="49.10" rerouteNo="0" devices="tripinfo_carIn49990:1 routing_carIn49990:1" vType="passenger3" speedFactor="0.85" vaporized=""/>
    <tripinfo id="carIn38577:1" depart="470.00" departLane="--32164_0" departPos="16.80" departSpeed="0.00" departDelay="0.00" arrival="688.00" arrivalLane="--31394#2_0" arrivalPos="19.70" arrivalSpeed="0.63" duration="218.00" routeLength="1249.70" waitingTime="105.00" waitingCount="3" stopTime="0.00" timeLoss="135.52" rerouteNo="0" devices="tripinfo_carIn38577:1 routing_carIn38577:1" vType="passenger1" speedFactor="0.96" vaporized=""/>
    <tripinfo id="carIn4294:1" depart="549.00" departLane="-30706#0_0" departPos="108.73" departSpeed="0.00" departDelay="2.00" arrival="696.00" arrivalLane="-31260_1" arrivalPos="81.41" arrivalSpeed="0.13" duration="147.00" routeLength="3515.46" waitingTime="0.00" waitingCount="0" stopTime="0.00" timeLoss="22.97" rerouteNo="1" devices="tripinfo_carIn4294:1 routing_carIn4294:1" vType="passenger1" speedFactor="1.02" vaporized=""/>
    <tripinfo id="h19108c1:1" depart="525.00" departLane="--31706#2_0" departPos="3.49" departSpeed="0.00" departDelay="0.00" arrival="699.00" arrivalLane="--31966#11_0" arrivalPos="24.30" arrivalSpeed="0.20" duration="174.00" routeLength="2853.94" waitingTime="0.00" waitingCount="0" stopTime="0.00" timeLoss="21.74" rerouteNo="1" devices="tripinfo_h19108c1:1 routing_h19108c1:1" vType="passenger5" speedFactor="1.24" vaporized=""/>
    <tripinfo id="carIn23342:1" depart="577.00" departLane="-32426#0_0" departPos="176.98" departSpeed="0.00" departDelay="0.00" arrival="702.00" arrivalLane="-30590#7_0" arrivalPos="1088.98" arrivalSpeed="0.73" duration="125.00" routeLength="1790.49" waitingTime="0.00" waitingCount="0" stopTime="0.00" timeLoss="16.26" rerouteNo="0" devices="tripinfo_carIn23342:1" vType="passenger2b" speedFactor="1.06" vaporized=""/>
    <tripinfo id="randUni20274:1" depart="434.00" departLane="--31788_0" departPos="29.38" departSpeed="0.00" departDelay="0.00" arrival="703.00" arrivalLane="--30528#3_0" arrivalPos="59.92" arrivalSpeed="0.09" duration="269.00" routeLength="1679.47" waitingTime="122.00" waitingCount="7" stopTime="0.00" timeLoss="168.15" rerouteNo="0" devices="tripinfo_randUni20274:1 routing_randUni20274:1" vType="passenger2b" speedFactor="1.14" vaporized=""/>
    <tripinfo id="carIn5504:1" depart="406.00" departLane="--30542#1_0" departPos="4.58" departSpeed="0.00" departDelay="2.00" arrival="704.00" arrivalLane="--32924#0_0" arrivalPos="293.76" arrivalSpeed="0.23" duration="298.00" routeLength="2383.34" waitingTime="59.00" waitingCount="6" stopTime="0.00" timeLoss="107.46" rerouteNo="0" devices="tripinfo_carIn5504:1" vType="passenger2a" speedFactor="0.90" vaporized=""/>
    <tripinfo id="carIn48184:1" depart="439.00" departLane="--31568_0" departPos="88.88" departSpeed="0.00" departDelay="0.00" arrival="705.00" arrivalLane="--30892#16_2" arrivalPos="92.79" arrivalSpeed="0.16" duration="266.00" routeLength="6116.02" waitingTime="0.00" waitingCount="0" stopTime="0.00" timeLoss="47.37" rerouteNo="0" devices="tripinfo_carIn48184:1 routing_carIn48184:1" vType="passenger1" speedFactor="1.14" vaporized=""/>
    <tripinfo id="carIn14214:1" depart="473.00" departLane="--30542#1_0" departPos="6.05" departSpeed="0.00" departDelay="11.00" arrival="705.00" arrivalLane="--31272#2_1" arrivalPos="57.38" arrivalSpeed="0.24" duration="232.00" routeLength="1257.60" waitingTime="104.00" waitingCount="3" stopTime="0.00" timeLoss="140.52" rerouteNo="0" devices="tripinfo_carIn14214:1 routing_carIn14214:1" vType="passenger2b" speedFactor="0.99" vaporized=""/>
    <tripinfo id="carIn13026:1" depart="557.00" departLane="-31622#0_0" departPos="48.65" departSpeed="0.00" departDelay="0.00" arrival="705.00" arrivalLane="-30668#16_0" arrivalPos="200.94" arrivalSpeed="1.60" duration="148.00" routeLength="2383.00" waitingTime="0.00" waitingCount="0" stopTime="0.00" timeLoss="19.18" rerouteNo="0" devices="tripinfo_carIn13026:1 routing_carIn13026:1" vType="passenger2b" speedFactor="0.89" vaporized=""/>
    <tripinfo id="carIn1511:1" depart="549.00" departLane="-30876_0" departPos="24.69" departSpeed="0.00" departDelay="0.00" arrival="707.00" arrivalLane="--32674#4_0" arrivalPos="869.70" arrivalSpeed="2.91" duration="158.00" routeLength="1576.18" waitingTime="32.00" waitingCount="1" stopTime="0.00" timeLoss="47.29" rerouteNo="0" devices="tripinfo_carIn1511:1" vType="passenger2b" speedFactor="0.97" vaporized=""/>
    <tripinfo id="h48762c1:1" depart="466.00" departLane="-31108_0" departPos="425.00" departSpeed="0.00" departDelay="0.00" arrival="709.00" arrivalLane="-31952#10_0" arrivalPos="205.75" arrivalSpeed="0.08" duration="243.00" routeLength="2922.80" waitingTime="16.00" waitingCount="2" stopTime="0.00" timeLoss="42.98" rerouteNo="0" devices="tripinfo_h48762c1:1 routing_h48762c1:1" vType="passenger2b" speedFactor="1.01" vaporized=""/>
    <tripinfo id="carIn28627:1" depart="490.00" departLane="--32606_0" departPos="3.73" departSpeed="0.00" departDelay="0.00" arrival="715.00" arrivalLane="-31992#3_1" arrivalPos="32.53" arrivalSpeed="3.19" duration="225.00" routeLength="2731.82" waitingTime="14.00" waitingCount="1" stopTime="0.00" timeLoss="57.98" rerouteNo="0" devices="tripinfo_carIn28627:1 routing_carIn28627:1" vType="passenger1" speedFactor="1.17" vaporized=""/>
    <tripinfo id="randUni15120:1" depart="395.00" departLane="--32492#0_0" departPos="60.43" departSpeed="0.00" departDelay="0.00" arrival="718.00" arrivalLane="-32530#0_0" arrivalPos="24.37" arrivalSpeed="0.15" duration="323.00" routeLength="4245.83" waitingTime="0.00" waitingCount="0" stopTime="0.00" timeLoss="31.21" rerouteNo="1" devices="tripinfo_randUni15120:1 routing_randUni15120:1" vType="passenger2a" speedFactor="1.02" vaporized=""/>
    <tripinfo id="carIn25064:1" depart="445.00" departLane="-30762#0_0" departPos="895.77" departSpeed="0.00" departDelay="0.00" arrival="719.00" arrivalLane="--31244#0_0" arrivalPos="335.09" arrivalSpeed="0.22" duration="274.00" routeLength="3711.65" waitingTime="28.00" waitingCount="1" stopTime="0.00" timeLoss="54.15" rerouteNo="0" devices="tripinfo_carIn25064:1 routing_carIn25064:1" vType="passenger2a" speedFactor="1.08" vaporized=""/>
    <tripinfo id="carIn18807:1" depart="596.00" departLane="-30706#0_0" departPos="176.75" departSpeed="0.00" departDelay="1.00" arrival="720.00" arrivalLane="-31502_0" arrivalPos="210.84" arrivalSpeed="0.12" duration="124.00" routeLength="2781.71" waitingTime="0.00" waitingCount="0" stopTime="0.00" timeLoss="14.45" rerouteNo="0" devices="tripinfo_carIn18807:1 routing_carIn18807:1" vType="passenger4" speedFactor="1.18" vaporized=""/>
    <tripinfo id="h48843c2:1" depart="396.00" departLane="-31108_0" departPos="57.73" departSpeed="0.00" departDelay="0.00" arrival="724.00" arrivalLane="--30608#5_1" arrivalPos="279.53" arrivalSpeed="0.86" duration="328.00" routeLength="4201.59" waitingTime="8.00" waitingCount="1" stopTime="0.00" timeLoss="46.74" rerouteNo="0" devices="tripinfo_h48843c2:1 routing_h48843c2:1" vType="passenger4" speedFactor="1.01" vaporized=""/>
    <tripinfo id="h55388c2:1" depart="451.00" departLane="-31602#0_0" departPos="124.80" departSpeed="0.00" departDelay="0.00" arrival="724.00" arrivalLane="-32984#3_0" arrivalPos="35.58" arrivalSpeed="0.07" duration="273.00" routeLength="1821.47" waitingTime="90.00" waitingCount="4" stopTime="0.00" timeLoss="122.76" rerouteNo="1" devices="tripinfo_h55388c2:1 routing_h55388c2:1" vType="passenger2b" speedFactor="0.87" vaporized=""/>
    <tripinfo id="h20065c1:1" depart="520.00" departLane="--31786_0" departPos="419.41" departSpeed="0.00" departDelay="0.00" arrival="727.00" arrivalLane="-31622#16_0" arrivalPos="125.88" arrivalSpeed="0.15" duration="207.00" routeLength="3486.39" waitingTime="0.00" waitingCount="0" stopTime="0.00" timeLoss="19.65" rerouteNo="0" devices="tripinfo_h20065c1:1 routing_h20065c1:1" vType="passenger3" speedFactor="1.05" vaporized=""/>
    <tripinfo id="h73081c1:1" depart="400.00" departLane="-32842#0_0" departPos="235.39" departSpeed="0.00" departDelay="0.00" arrival="728.00" arrivalLane="-30916#2_0" arrivalPos="839.99" arrivalSpeed="0.07" duration="328.00" routeLength="3900.78" waitingTime="71.00" waitingCount="4" stopTime="0.00" timeLoss="113.24" rerouteNo="0" devices="tripinfo_h73081c1:1 routing_h73081c1:1" vType="passenger4" speedFactor="1.18" vaporized=""/>