<?xml version="1.0" encoding="UTF-8"?>

<!-- generated on 01/20/21 17:19:40 by Eclipse SUMO GUI Version 1.6.0
<configuration xmlns:xsi="http://www.w3.org/2001/XMLSchema-instance" xsi:noNamespaceSchemaLocation="http://sumo.dlr.de/xsd/sumoConfiguration.xsd">

    <input>
        <net-file value="C:\Users\John\src\Sumo\bin\scenario\lust.net.xml"/>
        <route-files value="C:\Users\John\src\Sumo\bin\scenario\buslines.rou.xml,C:\Users\John\src\Sumo\bin\scenario\DUARoutes/local.0.rou.xml,C:\Users\John\src\Sumo\bin\scenario\DUARoutes/local.1.rou.xml,C:\Users\John\src\Sumo\bin\scenario\DUARoutes/local.2.rou.xml,C:\Users\John\src\Sumo\bin\scenario\transit.rou.xml"/>
        <additional-files value="C:\Users\John\src\Sumo\bin\scenario\vtypes.add.xml,C:\Users\John\src\Sumo\bin\scenario\busstops.add.xml,C:\Users\John\src\Sumo\bin\scenario\e1detectors.add.xml,C:\Users\John\src\Sumo\bin\scenario\lust.poly.xml"/>
    </input>

    <output>
        <summary-output value="C:\Users\John\src\Sumo\bin\scenario\dua.actuated.summary.xml"/>
        <tripinfo-output value="C:\Users\John\src\Sumo\bin\scenario\dua.actuated.tripinfo.xml"/>
    </output>

    <time>
        <begin value="27500"/>
        <step-length value="1"/>
    </time>

    <processing>
        <ignore-junction-blocker value="20"/>
        <time-to-teleport value="600"/>
        <max-depart-delay value="600"/>
    </processing>

    <routing>
        <routing-algorithm value="dijkstra"/>
        <device.rerouting.probability value="0.7"/>
        <device.rerouting.period value="300"/>
        <device.rerouting.pre-period value="300"/>
    </routing>

    <report>
        <verbose value="true"/>
        <log value="C:\Users\John\src\Sumo\bin\scenario\dua.actuated.log"/>
    </report>

    <gui_only>
        <tracker-interval value="1"/>
    </gui_only>

</configuration>
